 argument  1 = butan-1-ol.nw
                                         
                                         


              Northwest Computational Chemistry Package (NWChem) 6.3
              ------------------------------------------------------


                    Environmental Molecular Sciences Laboratory
                       Pacific Northwest National Laboratory
                                Richland, WA 99352

                              Copyright (c) 1994-2012
                       Pacific Northwest National Laboratory
                            Battelle Memorial Institute

             NWChem is an open-source computational chemistry package
                        distributed under the terms of the
                      Educational Community License (ECL) 2.0
             A copy of the license is included with this distribution
                              in the LICENSE.TXT file

                                  ACKNOWLEDGMENT
                                  --------------

            This software and its documentation were developed at the
            EMSL at Pacific Northwest National Laboratory, a multiprogram
            national laboratory, operated for the U.S. Department of Energy
            by Battelle under Contract Number DE-AC05-76RL01830. Support
            for this work was provided by the Department of Energy Office
            of Biological and Environmental Research, Office of Basic
            Energy Sciences, and the Office of Advanced Scientific Computing.


           Job information
           ---------------

    hostname        = Cooler-SSD
    program         = nwchem
    date            = Wed Jun 10 23:40:22 2015

    compiled        = Sun_Dec_22_04:02:59_2013
    source          = /build/buildd/nwchem-6.3+r1
    nwchem branch   = 6.3
    nwchem revision = 24277
    ga revision     = 10379
    input           = butan-1-ol.nw
    prefix          = butan-1-ol.
    data base       = ./butan-1-ol.db
    status          = startup
    nproc           =        4
    time left       =     -1s



           Memory information
           ------------------

    heap     =   13107201 doubles =    100.0 Mbytes
    stack    =   13107201 doubles =    100.0 Mbytes
    global   =   26214400 doubles =    200.0 Mbytes (distinct from heap & stack)
    total    =   52428802 doubles =    400.0 Mbytes
    verify   = yes
    hardfail = no 


           Directory information
           ---------------------

  0 permanent = .
  0 scratch   = ./scratch




                                NWChem Input Module
                                -------------------


                                    butan-1-ol
                                    ----------

 Scaling coordinates for geometry "geometry" by  1.889725989
 (inverse scale =  0.529177249)

 C1  symmetry detected

          ------
          auto-z
          ------


                             Geometry "geometry" -> ""
                             -------------------------

 Output coordinates in angstroms (scale by  1.889725989 to convert to a.u.)

  No.       Tag          Charge          X              Y              Z
 ---- ---------------- ---------- -------------- -------------- --------------
    1 C                    6.0000    -0.52395598     1.30457057    -0.00368139
    2 C                    6.0000     0.33223275     0.04530657    -0.03471537
    3 C                    6.0000    -0.52363176    -1.21721441     0.01576875
    4 C                    6.0000     0.33206164    -2.47345076    -0.01557988
    5 O                    8.0000     0.30869055     2.45536986    -0.05472467
    6 H                    1.0000    -1.12850690     1.35409229     0.90766250
    7 H                    1.0000    -1.19835540     1.33795543    -0.86496560
    8 H                    1.0000     1.03510911     0.06060470     0.80756837
    9 H                    1.0000     0.95067918     0.04987022    -0.94100778
   10 H                    1.0000    -1.21567797    -1.23232644    -0.83420252
   11 H                    1.0000    -1.13074136    -1.21880400     0.92853782
   12 H                    1.0000     0.93009421    -2.51828778    -0.93135613
   13 H                    1.0000    -0.30214412    -3.36480598     0.01988007
   14 H                    1.0000     1.01228062    -2.50639552     0.84148399
   15 H                    1.0000     0.87749834     2.43986641     0.73344399

      Atomic Mass 
      ----------- 

      C                 12.000000
      O                 15.994910
      H                  1.007825


 Effective nuclear repulsion energy (a.u.)     185.6433556744

            Nuclear Dipole moment (a.u.) 
            ----------------------------
        X                 Y               Z
 ---------------- ---------------- ----------------
    -0.0000000000    -0.0000000000    -0.0000000000



                                Z-matrix (autoz)
                                -------- 

 Units are Angstrom for bonds and degrees for angles

      Type          Name      I     J     K     L     M      Value
      ----------- --------  ----- ----- ----- ----- ----- ----------
    1 Stretch                  1     2                       1.52308
    2 Stretch                  1     5                       1.42135
    3 Stretch                  1     6                       1.09475
    4 Stretch                  1     7                       1.09441
    5 Stretch                  2     3                       1.52611
    6 Stretch                  2     8                       1.09714
    7 Stretch                  2     9                       1.09721
    8 Stretch                  3     4                       1.52030
    9 Stretch                  3    10                       1.09618
   10 Stretch                  3    11                       1.09624
   11 Stretch                  4    12                       1.09467
   12 Stretch                  4    13                       1.09453
   13 Stretch                  4    14                       1.09469
   14 Stretch                  5    15                       0.97211
   15 Bend                     1     2     3               111.59564
   16 Bend                     1     2     8               109.44875
   17 Bend                     1     2     9               109.28375
   18 Bend                     1     5    15               107.50245
   19 Bend                     2     1     5               109.83834
   20 Bend                     2     1     6               111.39484
   21 Bend                     2     1     7               110.82960
   22 Bend                     2     3     4               111.54636
   23 Bend                     2     3    10               109.86539
   24 Bend                     2     3    11               109.83606
   25 Bend                     3     2     8               110.20759
   26 Bend                     3     2     9               110.29607
   27 Bend                     3     4    12               111.01329
   28 Bend                     3     4    13               110.25045
   29 Bend                     3     4    14               111.00593
   30 Bend                     4     3    10               109.14487
   31 Bend                     4     3    11               109.12809
   32 Bend                     5     1     6               108.46779
   33 Bend                     5     1     7               107.94051
   34 Bend                     6     1     7               108.26808
   35 Bend                     8     2     9               105.84090
   36 Bend                    10     3    11               107.21558
   37 Bend                    12     4    13               108.07728
   38 Bend                    12     4    14               108.31737
   39 Bend                    13     4    14               108.06983
   40 Torsion                  1     2     3     4         179.98726
   41 Torsion                  1     2     3    10          58.81795
   42 Torsion                  1     2     3    11         -58.88455
   43 Torsion                  2     1     5    15         -61.52953
   44 Torsion                  2     3     4    12         -60.17290
   45 Torsion                  2     3     4    13        -179.91006
   46 Torsion                  2     3     4    14          60.36683
   47 Torsion                  3     2     1     5        -179.89185
   48 Torsion                  3     2     1     6          59.90746
   49 Torsion                  3     2     1     7         -60.70744
   50 Torsion                  4     3     2     8         -58.19030
   51 Torsion                  4     3     2     9          58.31327
   52 Torsion                  5     1     2     8          57.84851
   53 Torsion                  5     1     2     9         -57.63415
   54 Torsion                  6     1     2     8         -62.35218
   55 Torsion                  6     1     2     9        -177.83485
   56 Torsion                  6     1     5    15          60.43220
   57 Torsion                  7     1     2     8         177.03292
   58 Torsion                  7     1     2     9          61.55026
   59 Torsion                  7     1     5    15         177.52953
   60 Torsion                  8     2     3    10        -179.35960
   61 Torsion                  8     2     3    11          62.93790
   62 Torsion                  9     2     3    10         -62.85603
   63 Torsion                  9     2     3    11         179.44147
   64 Torsion                 10     3     4    12          61.41488
   65 Torsion                 10     3     4    13         -58.32228
   66 Torsion                 10     3     4    14        -178.04538
   67 Torsion                 11     3     4    12         178.28752
   68 Torsion                 11     3     4    13          58.55036
   69 Torsion                 11     3     4    14         -61.17274


            XYZ format geometry
            -------------------
    15
 geometry
 C                    -0.52395598     1.30457057    -0.00368139
 C                     0.33223275     0.04530657    -0.03471537
 C                    -0.52363176    -1.21721441     0.01576875
 C                     0.33206164    -2.47345076    -0.01557988
 O                     0.30869055     2.45536986    -0.05472467
 H                    -1.12850690     1.35409229     0.90766250
 H                    -1.19835540     1.33795543    -0.86496560
 H                     1.03510911     0.06060470     0.80756837
 H                     0.95067918     0.04987022    -0.94100778
 H                    -1.21567797    -1.23232644    -0.83420252
 H                    -1.13074136    -1.21880400     0.92853782
 H                     0.93009421    -2.51828778    -0.93135613
 H                    -0.30214412    -3.36480598     0.01988007
 H                     1.01228062    -2.50639552     0.84148399
 H                     0.87749834     2.43986641     0.73344399

 ==============================================================================
                                internuclear distances
 ------------------------------------------------------------------------------
       center one      |      center two      | atomic units |  angstroms
 ------------------------------------------------------------------------------
    2 C                |   1 C                |     2.87820  |     1.52308
    3 C                |   2 C                |     2.88393  |     1.52611
    4 C                |   3 C                |     2.87296  |     1.52030
    5 O                |   1 C                |     2.68597  |     1.42135
    6 H                |   1 C                |     2.06878  |     1.09475
    7 H                |   1 C                |     2.06814  |     1.09441
    8 H                |   2 C                |     2.07329  |     1.09714
    9 H                |   2 C                |     2.07342  |     1.09721
   10 H                |   3 C                |     2.07148  |     1.09618
   11 H                |   3 C                |     2.07158  |     1.09624
   12 H                |   4 C                |     2.06862  |     1.09467
   13 H                |   4 C                |     2.06836  |     1.09453
   14 H                |   4 C                |     2.06866  |     1.09469
   15 H                |   5 O                |     1.83702  |     0.97211
 ------------------------------------------------------------------------------
                         number of included internuclear distances:         14
 ==============================================================================



 ==============================================================================
                                 internuclear angles
 ------------------------------------------------------------------------------
        center 1       |       center 2       |       center 3       |  degrees
 ------------------------------------------------------------------------------
    2 C                |   1 C                |   5 O                |   109.84
    2 C                |   1 C                |   6 H                |   111.39
    2 C                |   1 C                |   7 H                |   110.83
    5 O                |   1 C                |   6 H                |   108.47
    5 O                |   1 C                |   7 H                |   107.94
    6 H                |   1 C                |   7 H                |   108.27
    1 C                |   2 C                |   3 C                |   111.60
    1 C                |   2 C                |   8 H                |   109.45
    1 C                |   2 C                |   9 H                |   109.28
    3 C                |   2 C                |   8 H                |   110.21
    3 C                |   2 C                |   9 H                |   110.30
    8 H                |   2 C                |   9 H                |   105.84
    2 C                |   3 C                |   4 C                |   111.55
    2 C                |   3 C                |  10 H                |   109.87
    2 C                |   3 C                |  11 H                |   109.84
    4 C                |   3 C                |  10 H                |   109.14
    4 C                |   3 C                |  11 H                |   109.13
   10 H                |   3 C                |  11 H                |   107.22
    3 C                |   4 C                |  12 H                |   111.01
    3 C                |   4 C                |  13 H                |   110.25
    3 C                |   4 C                |  14 H                |   111.01
   12 H                |   4 C                |  13 H                |   108.08
   12 H                |   4 C                |  14 H                |   108.32
   13 H                |   4 C                |  14 H                |   108.07
    1 C                |   5 O                |  15 H                |   107.50
 ------------------------------------------------------------------------------
                            number of included internuclear angles:         25
 ==============================================================================





 Summary of "ao basis" -> "" (cartesian)
 ------------------------------------------------------------------------------
       Tag                 Description            Shells   Functions and Types
 ---------------- ------------------------------  ------  ---------------------
 *                          cc-pvdz                   on all atoms 




                           NWChem Geometry Optimization
                           ----------------------------




                                    butan-1-ol


 maximum gradient threshold         (gmax) =   0.000450
 rms gradient threshold             (grms) =   0.000300
 maximum cartesian step threshold   (xmax) =   0.001800
 rms cartesian step threshold       (xrms) =   0.001200
 fixed trust radius                (trust) =   0.300000
 maximum step size to saddle      (sadstp) =   0.100000
 energy precision                  (eprec) =   5.0D-06
 maximum number of steps          (nptopt) =   20
 initial hessian option           (inhess) =    0
 line search option               (linopt) =    1
 hessian update option            (modupd) =    1
 saddle point option              (modsad) =    0
 initial eigen-mode to follow     (moddir) =    0
 initial variable to follow       (vardir) =    0
 follow first negative mode     (firstneg) =    T
 apply conjugacy                    (opcg) =    F
 source of zmatrix                         =   autoz   


          -------------------
          Energy Minimization
          -------------------


 Names of Z-matrix variables 
    1              2              3              4              5         
    6              7              8              9             10         
   11             12             13             14             15         
   16             17             18             19             20         
   21             22             23             24             25         
   26             27             28             29             30         
   31             32             33             34             35         
   36             37             38             39             40         
   41             42             43             44             45         
   46             47             48             49             50         
   51             52             53             54             55         
   56             57             58             59             60         
   61             62             63             64             65         
   66             67             68             69         

 Variables with the same non-blank name are constrained to be equal


 Using old Hessian from previous optimization

          --------
          Step   0
          --------


                         Geometry "geometry" -> "geometry"
                         ---------------------------------

 Output coordinates in angstroms (scale by  1.889725989 to convert to a.u.)

  No.       Tag          Charge          X              Y              Z
 ---- ---------------- ---------- -------------- -------------- --------------
    1 C                    6.0000    -0.52395598     1.30457057    -0.00368139
    2 C                    6.0000     0.33223275     0.04530657    -0.03471537
    3 C                    6.0000    -0.52363176    -1.21721441     0.01576875
    4 C                    6.0000     0.33206164    -2.47345076    -0.01557988
    5 O                    8.0000     0.30869055     2.45536986    -0.05472467
    6 H                    1.0000    -1.12850690     1.35409229     0.90766250
    7 H                    1.0000    -1.19835540     1.33795543    -0.86496560
    8 H                    1.0000     1.03510911     0.06060470     0.80756837
    9 H                    1.0000     0.95067918     0.04987022    -0.94100778
   10 H                    1.0000    -1.21567797    -1.23232644    -0.83420252
   11 H                    1.0000    -1.13074136    -1.21880400     0.92853782
   12 H                    1.0000     0.93009421    -2.51828778    -0.93135613
   13 H                    1.0000    -0.30214412    -3.36480598     0.01988007
   14 H                    1.0000     1.01228062    -2.50639552     0.84148399
   15 H                    1.0000     0.87749834     2.43986641     0.73344399

      Atomic Mass 
      ----------- 

      C                 12.000000
      O                 15.994910
      H                  1.007825


 Effective nuclear repulsion energy (a.u.)     185.6433556744

            Nuclear Dipole moment (a.u.) 
            ----------------------------
        X                 Y               Z
 ---------------- ---------------- ----------------
    -0.0000000000    -0.0000000000    -0.0000000000


                                 NWChem DFT Module
                                 -----------------


                                    butan-1-ol


                      Basis "ao basis" -> "ao basis" (cartesian)
                      -----
  C (Carbon)
  ----------
            Exponent  Coefficients 
       -------------- ---------------------------------------------------------
  1 S  6.66500000E+03  0.000692
  1 S  1.00000000E+03  0.005329
  1 S  2.28000000E+02  0.027077
  1 S  6.47100000E+01  0.101718
  1 S  2.10600000E+01  0.274740
  1 S  7.49500000E+00  0.448564
  1 S  2.79700000E+00  0.285074
  1 S  5.21500000E-01  0.015204

  2 S  6.66500000E+03 -0.000146
  2 S  1.00000000E+03 -0.001154
  2 S  2.28000000E+02 -0.005725
  2 S  6.47100000E+01 -0.023312
  2 S  2.10600000E+01 -0.063955
  2 S  7.49500000E+00 -0.149981
  2 S  2.79700000E+00 -0.127262
  2 S  5.21500000E-01  0.544529

  3 S  1.59600000E-01  1.000000

  4 P  9.43900000E+00  0.038109
  4 P  2.00200000E+00  0.209480
  4 P  5.45600000E-01  0.508557

  5 P  1.51700000E-01  1.000000

  6 D  5.50000000E-01  1.000000

  O (Oxygen)
  ----------
            Exponent  Coefficients 
       -------------- ---------------------------------------------------------
  1 S  1.17200000E+04  0.000710
  1 S  1.75900000E+03  0.005470
  1 S  4.00800000E+02  0.027837
  1 S  1.13700000E+02  0.104800
  1 S  3.70300000E+01  0.283062
  1 S  1.32700000E+01  0.448719
  1 S  5.02500000E+00  0.270952
  1 S  1.01300000E+00  0.015458

  2 S  1.17200000E+04 -0.000160
  2 S  1.75900000E+03 -0.001263
  2 S  4.00800000E+02 -0.006267
  2 S  1.13700000E+02 -0.025716
  2 S  3.70300000E+01 -0.070924
  2 S  1.32700000E+01 -0.165411
  2 S  5.02500000E+00 -0.116955
  2 S  1.01300000E+00  0.557368

  3 S  3.02300000E-01  1.000000

  4 P  1.77000000E+01  0.043018
  4 P  3.85400000E+00  0.228913
  4 P  1.04600000E+00  0.508728

  5 P  2.75300000E-01  1.000000

  6 D  1.18500000E+00  1.000000

  H (Hydrogen)
  ------------
            Exponent  Coefficients 
       -------------- ---------------------------------------------------------
  1 S  1.30100000E+01  0.019685
  1 S  1.96200000E+00  0.137977
  1 S  4.44600000E-01  0.478148

  2 S  1.22000000E-01  1.000000

  3 P  7.27000000E-01  1.000000



 Summary of "ao basis" -> "ao basis" (cartesian)
 ------------------------------------------------------------------------------
       Tag                 Description            Shells   Functions and Types
 ---------------- ------------------------------  ------  ---------------------
 C                          cc-pvdz                  6       15   3s2p1d
 O                          cc-pvdz                  6       15   3s2p1d
 H                          cc-pvdz                  3        5   2s1p


  Caching 1-el integrals 

            General Information
            -------------------
          SCF calculation type: DFT
          Wavefunction type:  closed shell.
          No. of atoms     :    15
          No. of electrons :    42
           Alpha electrons :    21
            Beta electrons :    21
          Charge           :     0
          Spin multiplicity:     1
          Use of symmetry is: off; symmetry adaption is: off
          Maximum number of iterations:  30
          AO basis - number of functions:   125
                     number of shells:    60
          Convergence on energy requested: 1.00D-06
          Convergence on density requested: 1.00D-05
          Convergence on gradient requested: 5.00D-04

              XC Information
              --------------
                        Slater Exchange Functional  1.000 local    
                      VWN V Correlation Functional  1.000 local    

             Grid Information
             ----------------
          Grid used for XC integration:  xcoarse   
          Radial quadrature: Mura-Knowles        
          Angular quadrature: Lebedev. 
          Tag              B.-S. Rad. Rad. Pts. Rad. Cut. Ang. Pts.
          ---              ---------- --------- --------- ---------
          C                   0.70       21          12.0       194
          O                   0.60       21          13.0       194
          H                   0.35       21          13.0       194
          Grid pruning is: on 
          Number of quadrature shells:   315
          Spatial weights used:  Erf1

          Convergence Information
          -----------------------
          Convergence aids based upon iterative change in 
          total energy or number of iterations. 
          Levelshifting, if invoked, occurs when the 
          HOMO/LUMO gap drops below (HL_TOL): 1.00D-02
          DIIS, if invoked, will attempt to extrapolate 
          using up to (NFOCK): 10 stored Fock matrices.

                    Damping( 0%)  Levelshifting(0.5)       DIIS
                  --------------- ------------------- ---------------
          dE  on:    start            ASAP                start   
          dE off:    2 iters         30 iters            30 iters 


      Screening Tolerance Information
      -------------------------------
          Density screening/tol_rho: 1.00D-10
          AO Gaussian exp screening on grid/accAOfunc:  14
          CD Gaussian exp screening on grid/accCDfunc:  20
          XC Gaussian exp screening on grid/accXCfunc:  20
          Schwarz screening/accCoul: 1.00D-08


      Superposition of Atomic Density Guess
      -------------------------------------

 Sum of atomic energies:        -230.42104555

      Non-variational initial energy
      ------------------------------

 Total energy =    -233.703499
 1-e energy   =    -677.667294
 2-e energy   =     258.320440
 HOMO         =      -0.350728
 LUMO         =       0.095678

   Time after variat. SCF:      0.5
   Time prior to 1st pass:      0.5

 Integral file          = ./scratch/butan-1-ol.aoints.0
 Record size in doubles =  65536        No. of integs per rec  =  43688
 Max. records in memory =    242        Max. records in file   =  12826
 No. of bits per label  =      8        No. of bits per value  =     64


 #quartets = 1.387D+06 #integrals = 2.269D+07 #direct =  0.0% #cached =100.0%


File balance: exchanges=     3  moved=    66  time=   0.0


 Grid_pts file          = ./scratch/butan-1-ol.gridpts.0
 Record size in doubles =  12289        No. of grid_pts per rec  =   3070
 Max. records in memory =      7        Max. recs in file   =     68405

 Grid integrated density:      41.993430764849
 Requested integration accuracy:   0.10E-03

           Memory utilization after 1st SCF pass: 
           Heap Space remaining (MW):        0.00                  14
          Stack Space remaining (MW):       13.11            13106170

   convergence    iter        energy       DeltaE   RMS-Dens  Diis-err    time
 ---------------- ----- ----------------- --------- --------- ---------  ------
 d= 0,ls=0.0,diis     1   -231.5326503213 -4.17D+02  1.10D-02  1.44D+00     2.0
 Grid integrated density:      41.993657127111
 Requested integration accuracy:   0.10E-03
 d= 0,ls=0.0,diis     2   -231.5139515875  1.87D-02  8.47D-03  1.03D+00     2.3
 Grid integrated density:      41.993544581425
 Requested integration accuracy:   0.10E-03
 d= 0,ls=0.0,diis     3   -231.5668577076 -5.29D-02  3.11D-03  4.87D-01     2.6
 Grid integrated density:      41.993572581827
 Requested integration accuracy:   0.10E-03
 d= 0,ls=0.0,diis     4   -231.6101361292 -4.33D-02  4.54D-04  3.97D-03     2.9
 Grid integrated density:      41.993580171646
 Requested integration accuracy:   0.10E-03
 d= 0,ls=0.0,diis     5   -231.6104755358 -3.39D-04  1.94D-04  8.95D-04     3.2
 Grid integrated density:      41.993575988201
 Requested integration accuracy:   0.10E-03
  Resetting Diis
 d= 0,ls=0.0,diis     6   -231.6105827172 -1.07D-04  3.59D-05  2.65D-05     3.5
 Grid integrated density:      41.993577976340
 Requested integration accuracy:   0.10E-03
 d= 0,ls=0.0,diis     7   -231.6105857619 -3.04D-06  2.08D-05  2.10D-06     3.8
 Grid integrated density:      41.993576909454
 Requested integration accuracy:   0.10E-03
 d= 0,ls=0.0,diis     8   -231.6105855158  2.46D-07  1.16D-05  4.49D-06     4.1
 Grid integrated density:      41.993577474856
 Requested integration accuracy:   0.10E-03
 d= 0,ls=0.0,diis     9   -231.6105860250 -5.09D-07  1.79D-06  1.01D-07     4.4


         Total DFT energy =     -231.610586024990
      One electron energy =     -683.038355732047
           Coulomb energy =      297.677000971987
    Exchange-Corr. energy =      -31.892586939280
 Nuclear repulsion energy =      185.643355674350

 Numeric. integr. density =       41.993577474856

     Total iterative time =      3.9s



                       DFT Final Molecular Orbital Analysis
                       ------------------------------------

 Vector    5  Occ=2.000000D+00  E=-9.778024D+00
              MO Center=  3.3D-01, -2.5D+00, -1.6D-02, r^2= 2.8D-02
   Bfn.  Coefficient  Atom+Function         Bfn.  Coefficient  Atom+Function  
  ----- ------------  ---------------      ----- ------------  ---------------
    46      1.002689   4 C  s         

 Vector    6  Occ=2.000000D+00  E=-9.154691D-01
              MO Center=  2.5D-01,  2.2D+00,  8.5D-02, r^2= 6.5D-01
   Bfn.  Coefficient  Atom+Function         Bfn.  Coefficient  Atom+Function  
  ----- ------------  ---------------      ----- ------------  ---------------
    62      0.407777   5 O  s                63      0.383398   5 O  s         
   121      0.177315  15 H  s                 2      0.151570   1 C  s         

 Vector    7  Occ=2.000000D+00  E=-7.189712D-01
              MO Center= -7.4D-02, -7.9D-01, -2.2D-03, r^2= 2.2D+00
   Bfn.  Coefficient  Atom+Function         Bfn.  Coefficient  Atom+Function  
  ----- ------------  ---------------      ----- ------------  ---------------
    32      0.251385   3 C  s                17      0.225567   2 C  s         
    33      0.172429   3 C  s                47      0.166824   4 C  s         

 Vector    8  Occ=2.000000D+00  E=-6.428889D-01
              MO Center=  1.6D-02, -5.4D-01, -7.9D-04, r^2= 4.3D+00
   Bfn.  Coefficient  Atom+Function         Bfn.  Coefficient  Atom+Function  
  ----- ------------  ---------------      ----- ------------  ---------------
    47      0.245317   4 C  s                 2     -0.216809   1 C  s         
    17     -0.174438   2 C  s         

 Vector    9  Occ=2.000000D+00  E=-5.616653D-01
              MO Center= -4.9D-02,  1.5D-01,  8.3D-03, r^2= 5.1D+00
   Bfn.  Coefficient  Atom+Function         Bfn.  Coefficient  Atom+Function  
  ----- ------------  ---------------      ----- ------------  ---------------
     2      0.242414   1 C  s                47      0.185740   4 C  s         
     3      0.183075   1 C  s                64     -0.170866   5 O  px        
   121     -0.157889  15 H  s         

 Vector   10  Occ=2.000000D+00  E=-5.224064D-01
              MO Center= -7.9D-02, -7.8D-01,  2.2D-04, r^2= 3.3D+00
   Bfn.  Coefficient  Atom+Function         Bfn.  Coefficient  Atom+Function  
  ----- ------------  ---------------      ----- ------------  ---------------
    32      0.233721   3 C  s                17     -0.183792   2 C  s         
    96      0.169048  10 H  s               101      0.165691  11 H  s         

 Vector   11  Occ=2.000000D+00  E=-4.496031D-01
              MO Center= -9.2D-02,  1.2D+00,  1.2D-01, r^2= 2.8D+00
   Bfn.  Coefficient  Atom+Function         Bfn.  Coefficient  Atom+Function  
  ----- ------------  ---------------      ----- ------------  ---------------
    66      0.244908   5 O  pz                6      0.229487   1 C  pz        
   121      0.207008  15 H  s                76      0.199391   6 H  s         
    64      0.184038   5 O  px                5     -0.158881   1 C  py        
    21      0.155088   2 C  pz        

 Vector   12  Occ=2.000000D+00  E=-4.204287D-01
              MO Center= -3.4D-02, -7.4D-02,  1.5D-05, r^2= 4.0D+00
   Bfn.  Coefficient  Atom+Function         Bfn.  Coefficient  Atom+Function  
  ----- ------------  ---------------      ----- ------------  ---------------
    36      0.230283   3 C  pz               64     -0.199079   5 O  px        
    21      0.198081   2 C  pz                5      0.175363   1 C  py        
    51      0.156703   4 C  pz               86      0.152464   8 H  s         

 Vector   13  Occ=2.000000D+00  E=-3.933449D-01
              MO Center= -1.5D-01, -5.7D-01,  5.0D-03, r^2= 4.4D+00
   Bfn.  Coefficient  Atom+Function         Bfn.  Coefficient  Atom+Function  
  ----- ------------  ---------------      ----- ------------  ---------------
    20      0.254398   2 C  py                4      0.245046   1 C  px        
    34     -0.226564   3 C  px              111      0.187449  13 H  s         
    50     -0.178115   4 C  py               49     -0.176624   4 C  px        
    65     -0.150411   5 O  py        

 Vector   14  Occ=2.000000D+00  E=-3.812376D-01
              MO Center= -1.5D-01, -1.2D-01, -6.0D-03, r^2= 5.0D+00
   Bfn.  Coefficient  Atom+Function         Bfn.  Coefficient  Atom+Function  
  ----- ------------  ---------------      ----- ------------  ---------------
     6      0.255070   1 C  pz               51     -0.227847   4 C  pz        
    36     -0.189649   3 C  pz              116     -0.169139  14 H  s         
    81     -0.168137   7 H  s         

 Vector   15  Occ=2.000000D+00  E=-3.444662D-01
              MO Center=  9.7D-02, -6.2D-01, -1.2D-01, r^2= 4.3D+00
   Bfn.  Coefficient  Atom+Function         Bfn.  Coefficient  Atom+Function  
  ----- ------------  ---------------      ----- ------------  ---------------
    49     -0.284559   4 C  px               19      0.261692   2 C  px        
     4     -0.228997   1 C  px               35     -0.220788   3 C  py        
   106     -0.178418  12 H  s                91      0.164438   9 H  s         

 Vector   16  Occ=2.000000D+00  E=-3.290712D-01
              MO Center=  2.7D-01, -5.5D-01,  3.6D-02, r^2= 5.6D+00
   Bfn.  Coefficient  Atom+Function         Bfn.  Coefficient  Atom+Function  
  ----- ------------  ---------------      ----- ------------  ---------------
    50      0.259385   4 C  py               65     -0.205363   5 O  py        
    21     -0.192429   2 C  pz               51      0.193295   4 C  pz        
    63     -0.179293   5 O  s               111     -0.177491  13 H  s         
    35     -0.173003   3 C  py               86     -0.167962   8 H  s         
    66      0.166754   5 O  pz        

 Vector   17  Occ=2.000000D+00  E=-3.146588D-01
              MO Center=  1.0D-01, -7.6D-01, -8.7D-02, r^2= 4.5D+00
   Bfn.  Coefficient  Atom+Function         Bfn.  Coefficient  Atom+Function  
  ----- ------------  ---------------      ----- ------------  ---------------
    50      0.234628   4 C  py               51     -0.209603   4 C  pz        
    35     -0.199549   3 C  py               21      0.189363   2 C  pz        
    64      0.170984   5 O  px              116     -0.168452  14 H  s         
     6     -0.166351   1 C  pz               91     -0.166987   9 H  s         

 Vector   18  Occ=2.000000D+00  E=-2.978084D-01
              MO Center= -6.9D-02, -1.2D+00, -8.5D-03, r^2= 3.2D+00
   Bfn.  Coefficient  Atom+Function         Bfn.  Coefficient  Atom+Function  
  ----- ------------  ---------------      ----- ------------  ---------------
    34      0.312576   3 C  px               19     -0.265646   2 C  px        
    49     -0.257563   4 C  px              101     -0.172272  11 H  s         
   111      0.169361  13 H  s                96     -0.153687  10 H  s         

 Vector   19  Occ=2.000000D+00  E=-2.840853D-01
              MO Center= -8.4D-02, -9.8D-01, -9.2D-03, r^2= 3.2D+00
   Bfn.  Coefficient  Atom+Function         Bfn.  Coefficient  Atom+Function  
  ----- ------------  ---------------      ----- ------------  ---------------
    36      0.309634   3 C  pz              101      0.250339  11 H  s         
    96     -0.244505  10 H  s                21     -0.230644   2 C  pz        
    91      0.193349   9 H  s                51     -0.185838   4 C  pz        
    86     -0.185237   8 H  s               102      0.170393  11 H  s         
    97     -0.167042  10 H  s               116     -0.158177  14 H  s         

 Vector   20  Occ=2.000000D+00  E=-2.640762D-01
              MO Center= -3.7D-02,  1.4D+00, -6.5D-02, r^2= 3.4D+00
   Bfn.  Coefficient  Atom+Function         Bfn.  Coefficient  Atom+Function  
  ----- ------------  ---------------      ----- ------------  ---------------
    66      0.319411   5 O  pz               65     -0.270938   5 O  py        
     6     -0.222812   1 C  pz               63     -0.223635   5 O  s         
    81      0.204140   7 H  s                68     -0.200549   5 O  py        
    69      0.197801   5 O  pz                5      0.188461   1 C  py        
    20     -0.187070   2 C  py               76     -0.178914   6 H  s         

 Vector   21  Occ=2.000000D+00  E=-2.083438D-01
              MO Center=  1.4D-01,  1.9D+00,  2.6D-02, r^2= 2.0D+00
   Bfn.  Coefficient  Atom+Function         Bfn.  Coefficient  Atom+Function  
  ----- ------------  ---------------      ----- ------------  ---------------
    64      0.385877   5 O  px               65     -0.318605   5 O  py        
    66     -0.284718   5 O  pz               67      0.283296   5 O  px        
    68     -0.250297   5 O  py               18     -0.230818   2 C  s         
    69     -0.214811   5 O  pz               20     -0.199088   2 C  py        
    76      0.179714   6 H  s                33      0.155561   3 C  s         

 Vector   22  Occ=0.000000D+00  E= 2.484952D-02
              MO Center=  5.2D-01,  1.3D+00,  8.0D-01, r^2= 5.0D+00
   Bfn.  Coefficient  Atom+Function         Bfn.  Coefficient  Atom+Function  
  ----- ------------  ---------------      ----- ------------  ---------------
     3      0.790389   1 C  s               122     -0.780045  15 H  s         
    87     -0.767649   8 H  s                18      0.690400   2 C  s         
    77     -0.590409   6 H  s                63      0.534251   5 O  s         
    22      0.523508   2 C  px               48      0.394555   4 C  s         
   102     -0.348060  11 H  s                33      0.326712   3 C  s         

 Vector   23  Occ=0.000000D+00  E= 3.517094D-02
              MO Center= -6.7D-02, -8.1D-01, -5.3D-02, r^2= 7.9D+00
   Bfn.  Coefficient  Atom+Function         Bfn.  Coefficient  Atom+Function  
  ----- ------------  ---------------      ----- ------------  ---------------
    33      1.213105   3 C  s                48      0.985556   4 C  s         
    97     -0.731695  10 H  s               102     -0.546732  11 H  s         
   122      0.539631  15 H  s               107     -0.532696  12 H  s         
    18      0.495660   2 C  s               112     -0.494104  13 H  s         
   117     -0.480629  14 H  s                63     -0.377865   5 O  s         

 Vector   24  Occ=0.000000D+00  E= 6.127805D-02
              MO Center= -4.3D-01, -3.2D-01, -1.7D-01, r^2= 7.9D+00
   Bfn.  Coefficient  Atom+Function         Bfn.  Coefficient  Atom+Function  
  ----- ------------  ---------------      ----- ------------  ---------------
     3      1.147222   1 C  s                82     -1.100471   7 H  s         
    48     -1.077010   4 C  s               117      0.808988  14 H  s         
    97     -0.729172  10 H  s                87      0.591388   8 H  s         
    77     -0.555389   6 H  s                 7     -0.441645   1 C  px        
    33      0.422125   3 C  s               112      0.344571  13 H  s         

 Vector   25  Occ=0.000000D+00  E= 6.789065D-02
              MO Center= -9.7D-02, -5.0D-01,  1.7D-02, r^2= 6.9D+00
   Bfn.  Coefficient  Atom+Function         Bfn.  Coefficient  Atom+Function  
  ----- ------------  ---------------      ----- ------------  ---------------
   102     -1.046639  11 H  s                92      0.976756   9 H  s         
   107      0.836566  12 H  s                77     -0.787534   6 H  s         
    33      0.561506   3 C  s                48     -0.484016   4 C  s         
    39      0.431334   3 C  pz                9      0.372067   1 C  pz        
    24      0.373895   2 C  pz               54      0.366922   4 C  pz        

 Vector   26  Occ=0.000000D+00  E= 8.344156D-02
              MO Center=  1.2D-01, -1.1D+00,  8.3D-02, r^2= 8.0D+00
   Bfn.  Coefficient  Atom+Function         Bfn.  Coefficient  Atom+Function  
  ----- ------------  ---------------      ----- ------------  ---------------
    18      1.289264   2 C  s               112      1.187877  13 H  s         
    48     -1.160018   4 C  s                87     -0.926573   8 H  s         
    92     -0.664899   9 H  s                52      0.536445   4 C  px        
    63     -0.416189   5 O  s                38     -0.412094   3 C  py        
    97      0.364827  10 H  s               122      0.354392  15 H  s         

 Vector   27  Occ=0.000000D+00  E= 1.071248D-01
              MO Center=  7.0D-02, -7.6D-01,  2.0D-01, r^2= 8.6D+00
   Bfn.  Coefficient  Atom+Function         Bfn.  Coefficient  Atom+Function  
  ----- ------------  ---------------      ----- ------------  ---------------
   117     -1.158051  14 H  s                48      1.134636   4 C  s         
    33     -0.989305   3 C  s                 3      0.926386   1 C  s         
    82     -0.701883   7 H  s               112      0.671600  13 H  s         
    53      0.598344   4 C  py               18     -0.591521   2 C  s         
    77     -0.584762   6 H  s                97      0.556750  10 H  s         

 Vector   28  Occ=0.000000D+00  E= 1.219270D-01
              MO Center=  2.3D-02, -1.1D+00, -2.8D-01, r^2= 8.4D+00
   Bfn.  Coefficient  Atom+Function         Bfn.  Coefficient  Atom+Function  
  ----- ------------  ---------------      ----- ------------  ---------------
   107      1.424684  12 H  s                82     -1.057566   7 H  s         
    77      0.885200   6 H  s                54      0.874754   4 C  pz        
   112     -0.762633  13 H  s                 9     -0.752409   1 C  pz        
   117     -0.740873  14 H  s                18      0.456492   2 C  s         
    87     -0.405944   8 H  s                33     -0.390095   3 C  s         

 Vector   29  Occ=0.000000D+00  E= 1.286005D-01
              MO Center= -3.9D-01, -1.3D+00, -4.2D-01, r^2= 6.8D+00
   Bfn.  Coefficient  Atom+Function         Bfn.  Coefficient  Atom+Function  
  ----- ------------  ---------------      ----- ------------  ---------------
    97      1.537855  10 H  s               112     -1.084871  13 H  s         
    92     -0.918341   9 H  s                39      0.826385   3 C  pz        
    33     -0.767729   3 C  s               117      0.710328  14 H  s         
    24     -0.611162   2 C  pz               18      0.582341   2 C  s         
    77     -0.581333   6 H  s                37      0.500497   3 C  px        

 Vector   30  Occ=0.000000D+00  E= 1.326375D-01
              MO Center= -7.5D-01, -5.3D-01,  7.4D-01, r^2= 6.2D+00
   Bfn.  Coefficient  Atom+Function         Bfn.  Coefficient  Atom+Function  
  ----- ------------  ---------------      ----- ------------  ---------------
   102      1.696117  11 H  s                77     -1.129168   6 H  s         
    39     -0.975566   3 C  pz               87     -0.699697   8 H  s         
   112     -0.663469  13 H  s                33     -0.651277   3 C  s         
    92      0.622793   9 H  s                24      0.582483   2 C  pz        
     3      0.560468   1 C  s                97     -0.534186  10 H  s         

 Vector   31  Occ=0.000000D+00  E= 1.445095D-01
              MO Center=  2.4D-01, -3.2D-01, -4.2D-01, r^2= 6.9D+00
   Bfn.  Coefficient  Atom+Function         Bfn.  Coefficient  Atom+Function  
  ----- ------------  ---------------      ----- ------------  ---------------
    92      1.288465   9 H  s                82     -1.126293   7 H  s         
   107     -1.053905  12 H  s                87     -0.974446   8 H  s         
    24      0.934418   2 C  pz                9     -0.836452   1 C  pz        
   117      0.793885  14 H  s                77      0.773738   6 H  s         
    54     -0.740678   4 C  pz               97      0.532506  10 H  s         

 Vector   32  Occ=0.000000D+00  E= 1.617902D-01
              MO Center=  1.7D-01,  3.2D-01,  3.2D-01, r^2= 6.3D+00
   Bfn.  Coefficient  Atom+Function         Bfn.  Coefficient  Atom+Function  
  ----- ------------  ---------------      ----- ------------  ---------------
    87      1.133104   8 H  s               117     -0.780214  14 H  s         
   122     -0.777560  15 H  s                22     -0.747176   2 C  px        
    37      0.750564   3 C  px               18     -0.731257   2 C  s         
     8      0.709074   1 C  py                3      0.574615   1 C  s         
    53     -0.564339   4 C  py               52      0.536298   4 C  px        

 Vector   33  Occ=0.000000D+00  E= 1.876818D-01
              MO Center= -3.3D-02, -2.9D-01, -1.4D-02, r^2= 4.1D+00
   Bfn.  Coefficient  Atom+Function         Bfn.  Coefficient  Atom+Function  
  ----- ------------  ---------------      ----- ------------  ---------------
    23      2.129881   2 C  py               38      1.372799   3 C  py        
    33      1.184809   3 C  s                 7     -1.144906   1 C  px        
    37      1.085931   3 C  px                3     -0.783551   1 C  s         
    22      0.539573   2 C  px               18     -0.501146   2 C  s         
    82     -0.473713   7 H  s                52     -0.427402   4 C  px        

 Vector   34  Occ=0.000000D+00  E= 2.086804D-01
              MO Center= -1.2D-01, -8.1D-01,  6.3D-03, r^2= 5.7D+00
   Bfn.  Coefficient  Atom+Function         Bfn.  Coefficient  Atom+Function  
  ----- ------------  ---------------      ----- ------------  ---------------
    33      2.232784   3 C  s                18     -1.955562   2 C  s         
    53     -1.246261   4 C  py                8     -1.225163   1 C  py        
    37      1.157152   3 C  px               22      1.086171   2 C  px        
    48     -1.027555   4 C  s                 3      0.609963   1 C  s         
    52      0.466344   4 C  px               63      0.340026   5 O  s         

 Vector   35  Occ=0.000000D+00  E= 2.194655D-01
              MO Center= -1.7D-03, -4.2D-01, -2.0D-02, r^2= 5.1D+00
   Bfn.  Coefficient  Atom+Function         Bfn.  Coefficient  Atom+Function  
  ----- ------------  ---------------      ----- ------------  ---------------
     3      1.639088   1 C  s                18     -1.411460   2 C  s         
    38      1.387644   3 C  py               22      1.143610   2 C  px        
    48      1.059618   4 C  s                 7      0.954279   1 C  px        
    52     -0.899149   4 C  px               23     -0.812069   2 C  py        
    53      0.719525   4 C  py               33     -0.654981   3 C  s         

 Vector   36  Occ=0.000000D+00  E= 3.603160D-01
              MO Center= -1.3D-01, -3.0D-01,  1.9D-02, r^2= 5.4D+00
   Bfn.  Coefficient  Atom+Function         Bfn.  Coefficient  Atom+Function  
  ----- ------------  ---------------      ----- ------------  ---------------
     7      1.085044   1 C  px               18     -0.969381   2 C  s         
    37      0.942990   3 C  px               52     -0.656290   4 C  px        
    22     -0.593494   2 C  px               19      0.386682   2 C  px        
     8     -0.383494   1 C  py               48     -0.364460   4 C  s         
    34     -0.320936   3 C  px               91      0.296217   9 H  s         

 Vector   37  Occ=0.000000D+00  E= 3.792892D-01
              MO Center= -6.6D-02, -1.7D+00, -4.1D-03, r^2= 3.5D+00
   Bfn.  Coefficient  Atom+Function         Bfn.  Coefficient  Atom+Function  
  ----- ------------  ---------------      ----- ------------  ---------------
    54      0.535639   4 C  pz              116     -0.509142  14 H  s         
   106      0.486288  12 H  s                96      0.468527  10 H  s         
   101     -0.460142  11 H  s                97     -0.391746  10 H  s         
   102      0.384198  11 H  s                42      0.258963   3 C  dxz       
    86     -0.223307   8 H  s                57     -0.218804   4 C  dxz       

 Vector   38  Occ=0.000000D+00  E= 3.884975D-01
              MO Center=  3.7D-02, -6.4D-02, -3.7D-02, r^2= 4.7D+00
   Bfn.  Coefficient  Atom+Function         Bfn.  Coefficient  Atom+Function  
  ----- ------------  ---------------      ----- ------------  ---------------
    87     -0.527252   8 H  s                54      0.522360   4 C  pz        
    86      0.506143   8 H  s                91     -0.448124   9 H  s         
    92      0.443351   9 H  s                76      0.407898   6 H  s         
    81     -0.372163   7 H  s                 9     -0.300511   1 C  pz        
   106      0.272850  12 H  s                27      0.264753   2 C  dxz       

 Vector   39  Occ=0.000000D+00  E= 3.964659D-01
              MO Center= -2.9D-01, -5.0D-01,  1.8D-03, r^2= 5.8D+00
   Bfn.  Coefficient  Atom+Function         Bfn.  Coefficient  Atom+Function  
  ----- ------------  ---------------      ----- ------------  ---------------
     8      1.045443   1 C  py               18      0.890255   2 C  s         
     3     -0.775630   1 C  s                53      0.736259   4 C  py        
    33     -0.580842   3 C  s                52     -0.573156   4 C  px        
    22     -0.545875   2 C  px                5     -0.536724   1 C  py        
     7     -0.391621   1 C  px               48      0.330860   4 C  s         

 Vector   40  Occ=0.000000D+00  E= 4.145920D-01
              MO Center=  1.8D-01, -9.2D-01, -1.6D-02, r^2= 5.0D+00
   Bfn.  Coefficient  Atom+Function         Bfn.  Coefficient  Atom+Function  
  ----- ------------  ---------------      ----- ------------  ---------------
    23      1.018963   2 C  py                7     -0.550190   1 C  px        
     3     -0.497496   1 C  s                52     -0.498858   4 C  px        
    22      0.421117   2 C  px               53      0.417659   4 C  py        
    20     -0.385980   2 C  py              111     -0.332355  13 H  s         
    35      0.317954   3 C  py              112      0.317215  13 H  s         

 Vector   41  Occ=0.000000D+00  E= 4.689453D-01
              MO Center= -2.8D-01,  3.4D-01, -3.2D-02, r^2= 5.3D+00
   Bfn.  Coefficient  Atom+Function         Bfn.  Coefficient  Atom+Function  
  ----- ------------  ---------------      ----- ------------  ---------------
     7      1.375958   1 C  px               37     -1.022074   3 C  px        
     3      0.817162   1 C  s                23     -0.657887   2 C  py        
    38     -0.627835   3 C  py                4     -0.562743   1 C  px        
    63     -0.536044   5 O  s                52      0.504486   4 C  px        
   122     -0.492634  15 H  s                33     -0.470185   3 C  s         

 Vector   42  Occ=0.000000D+00  E= 4.884557D-01
              MO Center= -1.8D-01, -1.4D-01, -2.3D-02, r^2= 6.4D+00
   Bfn.  Coefficient  Atom+Function         Bfn.  Coefficient  Atom+Function  
  ----- ------------  ---------------      ----- ------------  ---------------
    54     -0.856677   4 C  pz               38      0.796133   3 C  py        
    39      0.699127   3 C  pz               18     -0.585418   2 C  s         
    81     -0.554830   7 H  s                 9     -0.481723   1 C  pz        
    23      0.460831   2 C  py               33      0.436424   3 C  s         
    22      0.426814   2 C  px               37      0.410068   3 C  px        

 Vector   43  Occ=0.000000D+00  E= 5.120460D-01
              MO Center= -3.6D-01,  3.7D-01,  1.0D-01, r^2= 5.6D+00
   Bfn.  Coefficient  Atom+Function         Bfn.  Coefficient  Atom+Function  
  ----- ------------  ---------------      ----- ------------  ---------------
     8      1.542578   1 C  py               38      0.790927   3 C  py        
    63     -0.733506   5 O  s                23      0.676210   2 C  py        
    33      0.599624   3 C  s                 5     -0.567841   1 C  py        
    53     -0.411988   4 C  py               76     -0.376992   6 H  s         
    20     -0.370740   2 C  py               50      0.333478   4 C  py        


 center of mass
 --------------
 x =   0.00425699 y =   0.14138350 z =  -0.01687712

 moments of inertia (a.u.)
 ------------------
         897.673223878775          -0.000000000000           0.000000000000
          -0.000000000000          99.723548946529          -0.000000000000
           0.000000000000          -0.000000000000         948.136150567351

     Multipole analysis of the density
     ---------------------------------

     L   x y z        total         alpha         beta         nuclear
     -   - - -        -----         -----         ----         -------
     0   0 0 0     -0.000000    -21.000000    -21.000000     42.000000

     1   1 0 0      0.045243      0.022622      0.022622     -0.000000
     1   0 1 0     -0.417985     -0.208992     -0.208992     -0.000000
     1   0 0 1      0.430034      0.215017      0.215017     -0.000000

     2   2 0 0    -24.057352    -39.830941    -39.830941     55.604530
     2   1 1 0      0.772103      2.025060      2.025060     -3.278017
     2   1 0 1      1.140185      0.092380      0.092380      0.955425
     2   0 2 0    -28.181735   -265.109031   -265.109031    502.036328
     2   0 1 1      2.368420     -0.479693     -0.479693      3.327807
     2   0 0 2    -23.660584    -24.000174    -24.000174     24.339764


 Parallel integral file used     520 records with       0 large values



                            NWChem DFT Gradient Module
                            --------------------------


                                    butan-1-ol



  charge          =   0.00
  wavefunction    = closed shell



                         DFT ENERGY GRADIENTS

    atom               coordinates                        gradient
                 x          y          z           x          y          z
   1 C      -0.990133   2.465281  -0.006957   -0.035358  -0.005199  -0.006066
   2 C       0.627829   0.085617  -0.065603    0.027923   0.003101   0.001777
   3 C      -0.989521  -2.300202   0.029799   -0.023087   0.001224  -0.000259
   4 C       0.627506  -4.674144  -0.029442    0.011608  -0.008204  -0.000340
   5 O       0.583341   4.639976  -0.103415    0.008871  -0.004232   0.012263
   6 H      -2.132569   2.558863   1.715233    0.012095   0.005518  -0.011098
   7 H      -2.264563   2.528369  -1.634548    0.005816  -0.002382   0.009194
   8 H       1.956073   0.114526   1.526083   -0.006582  -0.000422  -0.010675
   9 H       1.796523   0.094241  -1.778247   -0.004802  -0.001624   0.009364
  10 H      -2.297298  -2.328759  -1.576414    0.008048  -0.001136   0.008093
  11 H      -2.136791  -2.303206   1.754682    0.007320  -0.000855  -0.008609
  12 H       1.757623  -4.758874  -1.760008   -0.006338   0.000858   0.008111
  13 H      -0.570970  -6.358561   0.037568    0.003677   0.009323  -0.000175
  14 H       1.912933  -4.736401   1.590174   -0.007170   0.001037  -0.007605
  15 H       1.658231   4.610679   1.386008   -0.002021   0.002992  -0.003976

                 ----------------------------------------
                 |  Time  |  1-e(secs)   |  2-e(secs)   |
                 ----------------------------------------
                 |  CPU   |       0.01   |       2.63   |
                 ----------------------------------------
                 |  WALL  |       0.01   |       2.70   |
                 ----------------------------------------

@ Step       Energy      Delta E   Gmax     Grms     Xrms     Xmax   Walltime
@ ---- ---------------- -------- -------- -------- -------- -------- --------
@    0    -231.61058602  0.0D+00  0.01562  0.00444  0.00000  0.00000      8.7
                                                                    



                                Z-matrix (autoz)
                                -------- 

 Units are Angstrom for bonds and degrees for angles

      Type          Name      I     J     K     L     M      Value     Gradient
      ----------- --------  ----- ----- ----- ----- ----- ---------- ----------
    1 Stretch                  1     2                       1.52308    0.00321
    2 Stretch                  1     5                       1.42135    0.00274
    3 Stretch                  1     6                       1.09475   -0.01562
    4 Stretch                  1     7                       1.09441   -0.01093
    5 Stretch                  2     3                       1.52611    0.00145
    6 Stretch                  2     8                       1.09714   -0.01244
    7 Stretch                  2     9                       1.09721   -0.01043
    8 Stretch                  3     4                       1.52030   -0.00150
    9 Stretch                  3    10                       1.09618   -0.01137
   10 Stretch                  3    11                       1.09624   -0.01119
   11 Stretch                  4    12                       1.09467   -0.01025
   12 Stretch                  4    13                       1.09453   -0.00973
   13 Stretch                  4    14                       1.09469   -0.01048
   14 Stretch                  5    15                       0.97211   -0.00446
   15 Bend                     1     2     3               111.59564   -0.00408
   16 Bend                     1     2     8               109.44875    0.00148
   17 Bend                     1     2     9               109.28375    0.00182
   18 Bend                     1     5    15               107.50245    0.00281
   19 Bend                     2     1     5               109.83834   -0.00567
   20 Bend                     2     1     6               111.39484    0.00337
   21 Bend                     2     1     7               110.82960    0.00052
   22 Bend                     2     3     4               111.54636   -0.00231
   23 Bend                     2     3    10               109.86539    0.00113
   24 Bend                     2     3    11               109.83606    0.00074
   25 Bend                     3     2     8               110.20759    0.00133
   26 Bend                     3     2     9               110.29607    0.00073
   27 Bend                     3     4    12               111.01329   -0.00020
   28 Bend                     3     4    13               110.25045   -0.00174
   29 Bend                     3     4    14               111.00593   -0.00031
   30 Bend                     4     3    10               109.14487    0.00017
   31 Bend                     4     3    11               109.12809    0.00038
   32 Bend                     5     1     6               108.46779   -0.00152
   33 Bend                     5     1     7               107.94051    0.00371
   34 Bend                     6     1     7               108.26808   -0.00035
   35 Bend                     8     2     9               105.84090   -0.00107
   36 Bend                    10     3    11               107.21558   -0.00001
   37 Bend                    12     4    13               108.07728    0.00083
   38 Bend                    12     4    14               108.31737    0.00063
   39 Bend                    13     4    14               108.06983    0.00089
   40 Torsion                  1     2     3     4         179.98726   -0.00004
   41 Torsion                  1     2     3    10          58.81795    0.00051
   42 Torsion                  1     2     3    11         -58.88455   -0.00059
   43 Torsion                  2     1     5    15         -61.52953   -0.00031
   44 Torsion                  2     3     4    12         -60.17290   -0.00039
   45 Torsion                  2     3     4    13        -179.91006   -0.00015
   46 Torsion                  2     3     4    14          60.36683    0.00007
   47 Torsion                  3     2     1     5        -179.89185   -0.00151
   48 Torsion                  3     2     1     6          59.90746    0.00199
   49 Torsion                  3     2     1     7         -60.70744   -0.00020
   50 Torsion                  4     3     2     8         -58.19030   -0.00001
   51 Torsion                  4     3     2     9          58.31327   -0.00009
   52 Torsion                  5     1     2     8          57.84851   -0.00149
   53 Torsion                  5     1     2     9         -57.63415   -0.00204
   54 Torsion                  6     1     2     8         -62.35218    0.00201
   55 Torsion                  6     1     2     9        -177.83485    0.00146
   56 Torsion                  6     1     5    15          60.43220   -0.00064
   57 Torsion                  7     1     2     8         177.03292   -0.00018
   58 Torsion                  7     1     2     9          61.55026   -0.00073
   59 Torsion                  7     1     5    15         177.52953    0.00015
   60 Torsion                  8     2     3    10        -179.35960    0.00054
   61 Torsion                  8     2     3    11          62.93790   -0.00056
   62 Torsion                  9     2     3    10         -62.85603    0.00046
   63 Torsion                  9     2     3    11         179.44147   -0.00063
   64 Torsion                 10     3     4    12          61.41488   -0.00036
   65 Torsion                 10     3     4    13         -58.32228   -0.00013
   66 Torsion                 10     3     4    14        -178.04538    0.00010
   67 Torsion                 11     3     4    12         178.28752   -0.00007
   68 Torsion                 11     3     4    13          58.55036    0.00017
   69 Torsion                 11     3     4    14         -61.17274    0.00039

 Restricting large step in mode    1 eval= 3.7D-03 step= 3.1D-01 new= 3.0D-01

                                 NWChem DFT Module
                                 -----------------


                                    butan-1-ol


  Caching 1-el integrals 

            General Information
            -------------------
          SCF calculation type: DFT
          Wavefunction type:  closed shell.
          No. of atoms     :    15
          No. of electrons :    42
           Alpha electrons :    21
            Beta electrons :    21
          Charge           :     0
          Spin multiplicity:     1
          Use of symmetry is: off; symmetry adaption is: off
          Maximum number of iterations:  30
          AO basis - number of functions:   125
                     number of shells:    60
          Convergence on energy requested: 1.00D-06
          Convergence on density requested: 1.00D-05
          Convergence on gradient requested: 5.00D-04

              XC Information
              --------------
                        Slater Exchange Functional  1.000 local    
                      VWN V Correlation Functional  1.000 local    

             Grid Information
             ----------------
          Grid used for XC integration:  xcoarse   
          Radial quadrature: Mura-Knowles        
          Angular quadrature: Lebedev. 
          Tag              B.-S. Rad. Rad. Pts. Rad. Cut. Ang. Pts.
          ---              ---------- --------- --------- ---------
          C                   0.70       21          12.0       194
          O                   0.60       21          13.0       194
          H                   0.35       21          13.0       194
          Grid pruning is: on 
          Number of quadrature shells:   315
          Spatial weights used:  Erf1

          Convergence Information
          -----------------------
          Convergence aids based upon iterative change in 
          total energy or number of iterations. 
          Levelshifting, if invoked, occurs when the 
          HOMO/LUMO gap drops below (HL_TOL): 1.00D-02
          DIIS, if invoked, will attempt to extrapolate 
          using up to (NFOCK): 10 stored Fock matrices.

                    Damping( 0%)  Levelshifting(0.5)       DIIS
                  --------------- ------------------- ---------------
          dE  on:    start            ASAP                start   
          dE off:    2 iters         30 iters            30 iters 


      Screening Tolerance Information
      -------------------------------
          Density screening/tol_rho: 1.00D-10
          AO Gaussian exp screening on grid/accAOfunc:  14
          CD Gaussian exp screening on grid/accCDfunc:  20
          XC Gaussian exp screening on grid/accXCfunc:  20
          Schwarz screening/accCoul: 1.00D-08


 Loading old vectors from job with title :

butan-1-ol

   Time after variat. SCF:      7.4
   Time prior to 1st pass:      7.4

 Integral file          = ./scratch/butan-1-ol.aoints.0
 Record size in doubles =  65536        No. of integs per rec  =  43688
 Max. records in memory =    242        Max. records in file   =  12826
 No. of bits per label  =      8        No. of bits per value  =     64


 #quartets = 1.382D+06 #integrals = 2.267D+07 #direct =  0.0% #cached =100.0%


File balance: exchanges=     4  moved=    51  time=   0.0


 Grid_pts file          = ./scratch/butan-1-ol.gridpts.0
 Record size in doubles =  12289        No. of grid_pts per rec  =   3070
 Max. records in memory =      7        Max. recs in file   =     68405

 Grid integrated density:      41.993451148433
 Requested integration accuracy:   0.10E-03

           Memory utilization after 1st SCF pass: 
           Heap Space remaining (MW):        0.00                  14
          Stack Space remaining (MW):       13.11            13106170

   convergence    iter        energy       DeltaE   RMS-Dens  Diis-err    time
 ---------------- ----- ----------------- --------- --------- ---------  ------
 d= 0,ls=0.0,diis     1   -231.6116953306 -4.17D+02  1.40D-03  1.22D-02     8.9
 Grid integrated density:      41.993459905451
 Requested integration accuracy:   0.10E-03
 d= 0,ls=0.0,diis     2   -231.6141598675 -2.46D-03  3.69D-04  8.50D-04     9.2
 Grid integrated density:      41.993436469347
 Requested integration accuracy:   0.10E-03
 d= 0,ls=0.0,diis     3   -231.6141383821  2.15D-05  1.90D-04  1.08D-03     9.5
 Grid integrated density:      41.993453327728
 Requested integration accuracy:   0.10E-03
 d= 0,ls=0.0,diis     4   -231.6142640794 -1.26D-04  3.40D-05  4.07D-05     9.8
 Grid integrated density:      41.993451737159
 Requested integration accuracy:   0.10E-03
 d= 0,ls=0.0,diis     5   -231.6142679275 -3.85D-06  1.03D-05  3.44D-06    10.1
 Grid integrated density:      41.993451363110
 Requested integration accuracy:   0.10E-03
 d= 0,ls=0.0,diis     6   -231.6142682572 -3.30D-07  2.98D-06  1.98D-07    10.4


         Total DFT energy =     -231.614268257150
      One electron energy =     -681.628220901447
           Coulomb energy =      296.916338900970
    Exchange-Corr. energy =      -31.841068742363
 Nuclear repulsion energy =      184.938682485689

 Numeric. integr. density =       41.993451363110

     Total iterative time =      3.0s



                       DFT Final Molecular Orbital Analysis
                       ------------------------------------

 Vector    5  Occ=2.000000D+00  E=-9.783606D+00
              MO Center=  3.3D-01, -2.5D+00, -1.4D-02, r^2= 2.8D-02
   Bfn.  Coefficient  Atom+Function         Bfn.  Coefficient  Atom+Function  
  ----- ------------  ---------------      ----- ------------  ---------------
    46      1.002783   4 C  s         

 Vector    6  Occ=2.000000D+00  E=-9.208644D-01
              MO Center=  2.2D-01,  2.2D+00,  5.3D-02, r^2= 6.4D-01
   Bfn.  Coefficient  Atom+Function         Bfn.  Coefficient  Atom+Function  
  ----- ------------  ---------------      ----- ------------  ---------------
    62      0.408736   5 O  s                63      0.383922   5 O  s         
   121      0.171405  15 H  s                 2      0.154349   1 C  s         

 Vector    7  Occ=2.000000D+00  E=-7.186751D-01
              MO Center= -7.4D-02, -7.5D-01,  1.5D-05, r^2= 2.2D+00
   Bfn.  Coefficient  Atom+Function         Bfn.  Coefficient  Atom+Function  
  ----- ------------  ---------------      ----- ------------  ---------------
    32      0.252523   3 C  s                17      0.230328   2 C  s         
    33      0.175191   3 C  s                47      0.163675   4 C  s         
    18      0.151756   2 C  s         

 Vector    8  Occ=2.000000D+00  E=-6.418237D-01
              MO Center=  2.1D-02, -5.9D-01,  3.4D-03, r^2= 4.3D+00
   Bfn.  Coefficient  Atom+Function         Bfn.  Coefficient  Atom+Function  
  ----- ------------  ---------------      ----- ------------  ---------------
    47      0.249763   4 C  s                 2     -0.213064   1 C  s         
    17     -0.174498   2 C  s                48      0.152556   4 C  s         

 Vector    9  Occ=2.000000D+00  E=-5.594583D-01
              MO Center= -4.0D-02,  1.7D-01,  6.5D-03, r^2= 5.2D+00
   Bfn.  Coefficient  Atom+Function         Bfn.  Coefficient  Atom+Function  
  ----- ------------  ---------------      ----- ------------  ---------------
     2      0.241710   1 C  s                 3      0.187402   1 C  s         
    47      0.187240   4 C  s                64     -0.181422   5 O  px        
   121     -0.162775  15 H  s         

 Vector   10  Occ=2.000000D+00  E=-5.194896D-01
              MO Center= -7.4D-02, -7.2D-01,  6.5D-04, r^2= 3.4D+00
   Bfn.  Coefficient  Atom+Function         Bfn.  Coefficient  Atom+Function  
  ----- ------------  ---------------      ----- ------------  ---------------
    32      0.231348   3 C  s                17     -0.183167   2 C  s         
    96      0.164857  10 H  s               101      0.161728  11 H  s         

 Vector   11  Occ=2.000000D+00  E=-4.506840D-01
              MO Center= -7.9D-02,  1.2D+00,  1.2D-01, r^2= 2.8D+00
   Bfn.  Coefficient  Atom+Function         Bfn.  Coefficient  Atom+Function  
  ----- ------------  ---------------      ----- ------------  ---------------
    66      0.231560   5 O  pz                6      0.224073   1 C  pz        
   121      0.208015  15 H  s                64      0.201222   5 O  px        
    76      0.194519   6 H  s                 5     -0.171701   1 C  py        

 Vector   12  Occ=2.000000D+00  E=-4.183728D-01
              MO Center= -1.9D-02, -1.5D-01, -3.6D-03, r^2= 3.9D+00
   Bfn.  Coefficient  Atom+Function         Bfn.  Coefficient  Atom+Function  
  ----- ------------  ---------------      ----- ------------  ---------------
    36      0.229679   3 C  pz               21      0.209074   2 C  pz        
    64     -0.196128   5 O  px                5      0.177057   1 C  py        
    86      0.161007   8 H  s                51      0.153885   4 C  pz        

 Vector   13  Occ=2.000000D+00  E=-3.932121D-01
              MO Center= -1.7D-01, -4.3D-01,  9.8D-03, r^2= 4.5D+00
   Bfn.  Coefficient  Atom+Function         Bfn.  Coefficient  Atom+Function  
  ----- ------------  ---------------      ----- ------------  ---------------
     4      0.259766   1 C  px               20      0.247409   2 C  py        
    34     -0.220840   3 C  px               49     -0.181444   4 C  px        
    65     -0.173727   5 O  py              111      0.169965  13 H  s         
    50     -0.151691   4 C  py        

 Vector   14  Occ=2.000000D+00  E=-3.785534D-01
              MO Center= -1.2D-01, -1.2D-01,  8.4D-03, r^2= 5.1D+00
   Bfn.  Coefficient  Atom+Function         Bfn.  Coefficient  Atom+Function  
  ----- ------------  ---------------      ----- ------------  ---------------
     6      0.240893   1 C  pz               51     -0.226086   4 C  pz        
    36     -0.189218   3 C  pz              116     -0.169611  14 H  s         
    81     -0.150681   7 H  s         

 Vector   15  Occ=2.000000D+00  E=-3.413880D-01
              MO Center=  9.1D-02, -6.3D-01, -1.2D-01, r^2= 4.5D+00
   Bfn.  Coefficient  Atom+Function         Bfn.  Coefficient  Atom+Function  
  ----- ------------  ---------------      ----- ------------  ---------------
    49      0.290381   4 C  px               19     -0.245463   2 C  px        
     4      0.231894   1 C  px               35      0.225782   3 C  py        
   106      0.182899  12 H  s                65     -0.170367   5 O  py        
    91     -0.159100   9 H  s         

 Vector   16  Occ=2.000000D+00  E=-3.329124D-01
              MO Center=  2.1D-01, -6.5D-01,  3.3D-02, r^2= 5.8D+00
   Bfn.  Coefficient  Atom+Function         Bfn.  Coefficient  Atom+Function  
  ----- ------------  ---------------      ----- ------------  ---------------
    50      0.286446   4 C  py              111     -0.200041  13 H  s         
    65     -0.196730   5 O  py               35     -0.183616   3 C  py        
    63     -0.180000   5 O  s                51      0.171780   4 C  pz        
    21     -0.166951   2 C  pz               86     -0.156173   8 H  s         
    66      0.151193   5 O  pz        

 Vector   17  Occ=2.000000D+00  E=-3.148230D-01
              MO Center=  1.8D-01, -6.5D-01, -8.7D-02, r^2= 4.6D+00
   Bfn.  Coefficient  Atom+Function         Bfn.  Coefficient  Atom+Function  
  ----- ------------  ---------------      ----- ------------  ---------------
    51     -0.223700   4 C  pz               21      0.207922   2 C  pz        
    50      0.208170   4 C  py               35     -0.179520   3 C  py        
   116     -0.180074  14 H  s                91     -0.176694   9 H  s         
    64      0.157547   5 O  px                6     -0.152092   1 C  pz        

 Vector   18  Occ=2.000000D+00  E=-2.959052D-01
              MO Center= -6.2D-02, -1.1D+00, -9.5D-03, r^2= 3.3D+00
   Bfn.  Coefficient  Atom+Function         Bfn.  Coefficient  Atom+Function  
  ----- ------------  ---------------      ----- ------------  ---------------
    34      0.305954   3 C  px               19     -0.270824   2 C  px        
    49     -0.246761   4 C  px              101     -0.177500  11 H  s         
   111      0.171882  13 H  s         

 Vector   19  Occ=2.000000D+00  E=-2.811310D-01
              MO Center= -1.0D-01, -9.8D-01, -1.1D-02, r^2= 3.5D+00
   Bfn.  Coefficient  Atom+Function         Bfn.  Coefficient  Atom+Function  
  ----- ------------  ---------------      ----- ------------  ---------------
    36      0.311107   3 C  pz               96     -0.250110  10 H  s         
   101      0.245027  11 H  s                21     -0.204818   2 C  pz        
    51     -0.191609   4 C  pz               91      0.173029   9 H  s         
   116     -0.169196  14 H  s                86     -0.167066   8 H  s         
    97     -0.166932  10 H  s               102      0.165250  11 H  s         

 Vector   20  Occ=2.000000D+00  E=-2.671773D-01
              MO Center= -9.2D-02,  1.3D+00, -7.7D-02, r^2= 3.4D+00
   Bfn.  Coefficient  Atom+Function         Bfn.  Coefficient  Atom+Function  
  ----- ------------  ---------------      ----- ------------  ---------------
    66      0.276158   5 O  pz               65     -0.252886   5 O  py        
     6     -0.238834   1 C  pz               81      0.236187   7 H  s         
    63     -0.208875   5 O  s                68     -0.193160   5 O  py        
    20     -0.183399   2 C  py              121      0.182068  15 H  s         
     5      0.174480   1 C  py               76     -0.172489   6 H  s         

 Vector   21  Occ=2.000000D+00  E=-2.124076D-01
              MO Center=  8.9D-02,  2.0D+00,  2.7D-02, r^2= 2.0D+00
   Bfn.  Coefficient  Atom+Function         Bfn.  Coefficient  Atom+Function  
  ----- ------------  ---------------      ----- ------------  ---------------
    64      0.367484   5 O  px               66     -0.322813   5 O  pz        
    65     -0.293078   5 O  py               67      0.270553   5 O  px        
    69     -0.240042   5 O  pz               18     -0.231219   2 C  s         
    68     -0.229300   5 O  py               76      0.200731   6 H  s         
    20     -0.189913   2 C  py               77      0.159642   6 H  s         

 Vector   22  Occ=0.000000D+00  E= 2.304178D-02
              MO Center=  6.1D-01,  1.4D+00,  7.8D-01, r^2= 4.7D+00
   Bfn.  Coefficient  Atom+Function         Bfn.  Coefficient  Atom+Function  
  ----- ------------  ---------------      ----- ------------  ---------------
   122     -0.817851  15 H  s                87     -0.767935   8 H  s         
     3      0.762619   1 C  s                18      0.663990   2 C  s         
    63      0.538220   5 O  s                77     -0.527976   6 H  s         
    22      0.509845   2 C  px               48      0.342158   4 C  s         
   102     -0.301164  11 H  s                92     -0.275812   9 H  s         

 Vector   23  Occ=0.000000D+00  E= 3.314142D-02
              MO Center= -8.1D-02, -8.9D-01, -3.4D-02, r^2= 7.8D+00
   Bfn.  Coefficient  Atom+Function         Bfn.  Coefficient  Atom+Function  
  ----- ------------  ---------------      ----- ------------  ---------------
    33      1.223506   3 C  s                48      0.985485   4 C  s         
    97     -0.717045  10 H  s               102     -0.575184  11 H  s         
   122      0.524688  15 H  s               107     -0.514844  12 H  s         
   112     -0.495047  13 H  s               117     -0.492145  14 H  s         
    18      0.489125   2 C  s                92     -0.360076   9 H  s         

 Vector   24  Occ=0.000000D+00  E= 5.799573D-02
              MO Center= -4.2D-01, -3.6D-01, -1.5D-01, r^2= 7.8D+00
   Bfn.  Coefficient  Atom+Function         Bfn.  Coefficient  Atom+Function  
  ----- ------------  ---------------      ----- ------------  ---------------
     3      1.096034   1 C  s                82     -1.058484   7 H  s         
    48     -1.048736   4 C  s               117      0.804041  14 H  s         
    97     -0.726326  10 H  s                87      0.577978   8 H  s         
    77     -0.543002   6 H  s                 7     -0.453666   1 C  px        
    33      0.427291   3 C  s               107      0.355513  12 H  s         

 Vector   25  Occ=0.000000D+00  E= 6.221294D-02
              MO Center= -9.9D-02, -4.5D-01,  1.2D-02, r^2= 6.9D+00
   Bfn.  Coefficient  Atom+Function         Bfn.  Coefficient  Atom+Function  
  ----- ------------  ---------------      ----- ------------  ---------------
   102     -0.968655  11 H  s                92      0.937669   9 H  s         
   107      0.803445  12 H  s                77     -0.787823   6 H  s         
    48     -0.511561   4 C  s                33      0.473564   3 C  s         
    39      0.419361   3 C  pz                9      0.382395   1 C  pz        
    24      0.379469   2 C  pz               54      0.350188   4 C  pz        

 Vector   26  Occ=0.000000D+00  E= 8.008305D-02
              MO Center=  1.3D-01, -1.2D+00,  5.8D-02, r^2= 8.1D+00
   Bfn.  Coefficient  Atom+Function         Bfn.  Coefficient  Atom+Function  
  ----- ------------  ---------------      ----- ------------  ---------------
    18      1.206776   2 C  s               112      1.205964  13 H  s         
    48     -1.106488   4 C  s                87     -0.856988   8 H  s         
    92     -0.726089   9 H  s                52      0.534429   4 C  px        
    63     -0.394941   5 O  s               122      0.391853  15 H  s         
    38     -0.369386   3 C  py               22      0.315691   2 C  px        

 Vector   27  Occ=0.000000D+00  E= 1.049770D-01
              MO Center=  2.6D-02, -7.5D-01,  1.4D-01, r^2= 8.5D+00
   Bfn.  Coefficient  Atom+Function         Bfn.  Coefficient  Atom+Function  
  ----- ------------  ---------------      ----- ------------  ---------------
[...]
          12     0.00240     0.00110    -0.04057     0.00093     0.00012     0.00015
          13     0.00260     0.00413    -0.00025    -0.00455     0.00385     0.00102
          14     0.00240     0.00445     0.00075    -0.00078     0.00181     0.00180
          15     0.00211     0.00007    -0.00066    -0.00051    -0.00273     0.00008
          16    -0.04342    -0.19444    -0.00863     0.24311    -0.44891    -0.50313
          17     0.02001    -0.01411     0.00879     0.01925    -0.06321     0.00333
          18    -0.02959    -0.13451    -0.00300     0.16860    -0.31359     0.80180
          19    -0.05391    -0.17761     0.00471     0.22336    -0.39165    -0.08951
          20    -0.00000    -0.03557     0.00003     0.04684    -0.08479    -0.00180
          21     0.03961     0.16171     0.00034    -0.20319     0.37201    -0.13455
          22     0.31120     0.30680     0.02680    -0.06288    -0.20093    -0.02811
          23     0.00088     0.02321     0.03490     0.00069     0.04886    -0.00002
          24    -0.28231    -0.29103    -0.02730     0.05524     0.18488    -0.02937
          25     0.35218     0.35347     0.02822    -0.07315    -0.22109     0.02917
          26     0.01058     0.02257    -0.03106     0.00335     0.03693     0.00327
          27     0.25071     0.26083     0.01745    -0.04791    -0.15926    -0.04156
          28    -0.37608     0.22498    -0.06761    -0.20155    -0.16729     0.00620
          29     0.01359    -0.06548     0.03763    -0.06910    -0.02663    -0.00049
          30     0.31711    -0.18098     0.02559     0.18925     0.14884     0.00855
          31    -0.39351     0.22436     0.01158    -0.21009    -0.17065     0.00811
          32     0.00845    -0.06875    -0.04925    -0.06664    -0.02692    -0.00540
          33    -0.30698     0.17552    -0.02188    -0.18198    -0.14317    -0.01318
          34     0.12922    -0.25567     0.11546    -0.38196    -0.10262    -0.00078
          35    -0.03778    -0.04101     0.47875    -0.06701    -0.01579     0.00121
          36     0.10445    -0.19648     0.03954    -0.29437    -0.07829     0.00041
          37    -0.05865     0.17370    -0.00051     0.25992     0.07344     0.00211
          38     0.04360    -0.11922    -0.00513    -0.16013    -0.04245     0.00148
          39    -0.04823    -0.01067     0.67581    -0.01201    -0.00139    -0.00016
          40     0.14658    -0.25519    -0.11988    -0.38266    -0.10300    -0.00016
          41     0.03308    -0.02417    -0.48158    -0.04595    -0.01289     0.00053
          42    -0.10696     0.19039     0.03798     0.28509     0.07568    -0.00049
          43     0.01755     0.00841    -0.00253    -0.00684    -0.01200     0.00132
          44     0.02442     0.00617    -0.00694    -0.00916    -0.03555     0.00263
          45    -0.01174    -0.00350     0.00168     0.00181     0.01159     0.00486

                   37          38          39          40          41          42
 
 P.Frequency     2903.98     2932.59     2956.54     2961.80     2970.15     2987.71
 
           1     0.00491    -0.00134     0.00131    -0.02170     0.03503     0.01627
           2    -0.00220    -0.00014    -0.00013     0.00061    -0.00204    -0.00133
           3     0.00507    -0.00409     0.00108    -0.02787     0.05481     0.03324
           4    -0.06120     0.00593     0.00040    -0.02182     0.00278    -0.01304
           5    -0.00008    -0.00078    -0.00017    -0.00176     0.00041    -0.00171
           6    -0.03304     0.00798    -0.00393     0.04950    -0.00062     0.06414
           7     0.00802     0.06624    -0.00228    -0.00646    -0.00089     0.00103
           8     0.00116    -0.00101    -0.00159    -0.00020    -0.00075     0.00095
           9     0.00507    -0.00603     0.00434    -0.05036    -0.05367     0.04404
          10    -0.00011    -0.00635    -0.03522    -0.00166    -0.00072    -0.00046
          11    -0.00043    -0.00036     0.03700     0.00286     0.00054    -0.00039
          12    -0.00028     0.00055    -0.00183     0.00759     0.00924    -0.01081
          13     0.00016    -0.00012    -0.00003     0.00047    -0.00055    -0.00014
          14     0.00053     0.00011     0.00016    -0.00025     0.00053     0.00033
          15    -0.00027     0.00009    -0.00006     0.00051    -0.00105    -0.00087
          16    -0.00193    -0.01176    -0.00023    -0.01931     0.06453     0.05999
          17     0.00204     0.00322    -0.00078     0.00309    -0.00302    -0.00577
          18     0.00816     0.01543     0.00104     0.01703    -0.08403    -0.08739
          19    -0.06462     0.02972    -0.01246     0.27341    -0.47574    -0.25005
          20     0.00322     0.00130    -0.00002    -0.01409     0.02311     0.01649
          21    -0.07531     0.03500    -0.01478     0.32336    -0.56605    -0.29775
          22     0.56664    -0.07641     0.01501    -0.08563    -0.01739    -0.20053
          23    -0.01053     0.00214     0.00198     0.00176     0.00290     0.00422
          24     0.68948    -0.09101     0.01626    -0.08529    -0.02040    -0.22621
          25     0.16274     0.00842    -0.02109     0.34416    -0.01783     0.35177
          26     0.01007     0.00126     0.00083     0.01870    -0.00306     0.01954
          27    -0.28558    -0.00794     0.03244    -0.52382     0.02830    -0.53616
          28    -0.07863    -0.37588    -0.00416     0.27857     0.25475    -0.20745
          29    -0.00112    -0.00411     0.00177     0.00339    -0.00031    -0.00593
          30    -0.10171    -0.51146    -0.00174     0.35203     0.32131    -0.26254
          31    -0.01981    -0.41025     0.03614    -0.20059    -0.24412     0.19731
          32    -0.00065     0.01015     0.00080     0.00609     0.00591    -0.00156
          33     0.03251     0.58663    -0.05117     0.26300     0.32627    -0.26426
          34    -0.00437     0.03084     0.34602     0.06011     0.05155    -0.04876
          35    -0.00130    -0.00298    -0.01635    -0.00477    -0.00195    -0.00063
          36     0.00561    -0.04425    -0.47539    -0.07835    -0.06689     0.06404
          37     0.00743     0.01667    -0.28488    -0.02274    -0.00472     0.00395
          38     0.00641     0.01904    -0.38922    -0.03154    -0.00693     0.00454
          39     0.00069     0.00011    -0.00394     0.00189     0.00366    -0.00470
          40     0.00086     0.02360     0.35180    -0.01590    -0.03974     0.05032
          41    -0.00403    -0.00252    -0.01944     0.00084     0.00261    -0.00076
          42     0.00009     0.03666     0.50147    -0.01988    -0.05251     0.06869
          43     0.00524    -0.00079     0.00055    -0.00457     0.00637     0.00063
          44     0.00586    -0.00188    -0.00021     0.00247    -0.00563    -0.00591
          45     0.00625    -0.00168     0.00080    -0.00633     0.01078     0.00488

                   43          44          45
 
 P.Frequency     3037.16     3052.00     3679.45
 
           1     0.00017     0.00037    -0.00157
           2    -0.00001    -0.00020     0.00139
           3     0.00050     0.00009    -0.00255
           4    -0.00030    -0.00039     0.00090
           5    -0.00011    -0.00018     0.00020
           6     0.00289     0.00024     0.00059
           7     0.00054     0.00518    -0.00007
           8     0.00025     0.00014     0.00012
           9     0.01749    -0.00017     0.00002
          10     0.00126     0.06950     0.00007
          11     0.00208     0.05333     0.00001
          12     0.08616    -0.00242     0.00003
          13     0.00001    -0.00001    -0.04150
          14     0.00001     0.00006    -0.00041
          15    -0.00003    -0.00000    -0.04346
          16     0.00224    -0.00145     0.00316
          17    -0.00122     0.00062     0.00374
          18    -0.00299     0.00190    -0.00069
          19    -0.00420    -0.00269     0.00680
          20     0.00133     0.00071    -0.00375
          21    -0.00456    -0.00299     0.01341
          22    -0.01191    -0.00149    -0.00289
          23    -0.00277    -0.00181    -0.00327
          24    -0.01295    -0.00172    -0.00540
          25     0.01499     0.00045    -0.00019
          26     0.00382    -0.00178    -0.00066
          27    -0.02228    -0.00076    -0.00027
          28    -0.07800    -0.02460    -0.00029
          29     0.00035    -0.00002     0.00035
          30    -0.10074    -0.03110    -0.00013
          31     0.07249    -0.02415    -0.00000
          32    -0.00308     0.00096    -0.00013
          33    -0.09953     0.03256    -0.00003
          34     0.39809    -0.19800    -0.00008
          35    -0.02329     0.02347     0.00001
          36    -0.51665     0.28791     0.00007
          37    -0.01978    -0.47319    -0.00006
          38    -0.02812    -0.67783     0.00043
          39     0.01892    -0.00632    -0.00007
          40    -0.39364    -0.16381    -0.00023
          41     0.02681     0.02274     0.00001
          42    -0.53325    -0.25260    -0.00030
          43    -0.00032     0.00017     0.66041
          44    -0.00038    -0.00042    -0.01067
          45    -0.00010    -0.00004     0.70584



 ----------------------------------------------------------------------------
 Normal Eigenvalue ||    Projected Derivative Dipole Moments (debye/angs)
  Mode   [cm**-1]  ||      [d/dqX]             [d/dqY]           [d/dqZ]
 ------ ---------- || ------------------ ------------------ -----------------
    1       -0.000 ||      -0.008               0.005             0.009
    2        0.000 ||      -0.017               0.036             0.045
    3        0.000 ||       0.043               0.009            -0.006
    4        0.000 ||      -0.035              -0.018            -0.007
    5        0.000 ||      -0.114               0.037             0.081
    6        0.000 ||      -0.155              -0.035             0.018
    7      116.021 ||      -0.157               0.182             0.225
    8      128.537 ||       0.208               0.095            -0.005
    9      171.082 ||       0.024               0.198             0.130
   10      250.067 ||      -0.007               0.079             0.048
   11      296.103 ||      -0.779               1.005             0.952
   12      380.813 ||      -0.185              -0.031             0.067
   13      438.223 ||      -0.436               0.345             0.244
   14      725.460 ||       0.023              -0.048            -0.394
   15      771.267 ||       0.136               0.028             0.001
   16      884.138 ||       0.054               0.243             0.002
   17      895.445 ||       0.152               0.203            -0.105
   18     1006.304 ||       0.588               0.639            -0.100
   19     1054.999 ||      -0.368              -0.848             0.043
   20     1072.196 ||       0.285               0.611             0.000
   21     1101.713 ||       0.101               0.766            -0.011
   22     1118.415 ||      -0.413              -0.691             0.151
   23     1164.395 ||       0.031               0.136            -0.092
   24     1197.355 ||       0.052               0.223            -0.069
   25     1237.741 ||       0.152               0.333            -0.091
   26     1245.155 ||       0.024               0.022            -0.085
   27     1297.155 ||       0.021               0.002             0.017
   28     1324.967 ||       0.161              -0.292            -0.017
   29     1336.727 ||       0.201               0.147             0.051
   30     1350.697 ||       0.455               1.085            -0.007
   31     1383.924 ||       0.027               0.061            -0.005
   32     1390.020 ||       0.069              -0.132             0.001
   33     1392.620 ||      -0.016              -0.013             0.487
   34     1403.956 ||      -0.309              -0.183            -0.010
   35     1417.684 ||      -0.217               0.069            -0.001
   36     2846.791 ||       1.038               0.120            -0.789
   37     2903.977 ||      -0.626              -0.141            -0.291
   38     2932.592 ||       0.834              -0.003            -0.033
   39     2956.544 ||      -0.462               0.606            -0.007
   40     2961.801 ||      -0.555               0.056            -0.211
   41     2970.148 ||       0.398              -0.009             0.125
   42     2987.714 ||       0.051               0.009             1.108
   43     3037.157 ||      -0.022              -0.031            -0.789
   44     3051.996 ||      -0.505              -0.471             0.015
   45     3679.452 ||       0.423               0.217             0.366
 ----------------------------------------------------------------------------



  
  
 ----------------------------------------------------------------------------
 Normal Eigenvalue ||           Projected Infra Red Intensities
  Mode   [cm**-1]  || [atomic units] [(debye/angs)**2] [(KM/mol)] [arbitrary]
 ------ ---------- || -------------- ----------------- ---------- -----------
    1       -0.000 ||    0.000008           0.000         0.007       0.005
    2        0.000 ||    0.000158           0.004         0.154       0.104
    3        0.000 ||    0.000085           0.002         0.083       0.056
    4        0.000 ||    0.000068           0.002         0.067       0.045
    5        0.000 ||    0.000906           0.021         0.883       0.594
    6        0.000 ||    0.001102           0.025         1.075       0.723
    7      116.021 ||    0.004709           0.109         4.590       3.090
    8      128.537 ||    0.002265           0.052         2.208       1.486
    9      171.082 ||    0.002452           0.057         2.391       1.609
   10      250.067 ||    0.000370           0.009         0.361       0.243
   11      296.103 ||    0.109344           2.523       106.594      71.749
   12      380.813 ||    0.001720           0.040         1.677       1.129
   13      438.223 ||    0.015968           0.368        15.566      10.477
   14      725.460 ||    0.006859           0.158         6.687       4.501
   15      771.267 ||    0.000835           0.019         0.814       0.548
   16      884.138 ||    0.002681           0.062         2.614       1.759
   17      895.445 ||    0.003261           0.075         3.179       2.140
   18     1006.304 ||    0.033124           0.764        32.291      21.735
   19     1054.999 ||    0.037098           0.856        36.165      24.342
   20     1072.196 ||    0.019726           0.455        19.230      12.943
   21     1101.713 ||    0.025889           0.597        25.238      16.988
   22     1118.415 ||    0.029111           0.672        28.379      19.102
   23     1164.395 ||    0.001213           0.028         1.183       0.796
   24     1197.355 ||    0.002483           0.057         2.420       1.629
   25     1237.741 ||    0.006162           0.142         6.007       4.043
   26     1245.155 ||    0.000360           0.008         0.350       0.236
   27     1297.155 ||    0.000033           0.001         0.032       0.021
   28     1324.967 ||    0.004825           0.111         4.703       3.166
   29     1336.727 ||    0.002795           0.064         2.725       1.834
   30     1350.697 ||    0.060035           1.385        58.525      39.394
   31     1383.924 ||    0.000193           0.004         0.188       0.126
   32     1390.020 ||    0.000960           0.022         0.936       0.630
   33     1392.620 ||    0.010288           0.237        10.029       6.751
   34     1403.956 ||    0.005590           0.129         5.449       3.668
   35     1417.684 ||    0.002245           0.052         2.188       1.473
   36     2846.791 ||    0.074356           1.715        72.486      48.791
   37     2903.977 ||    0.021548           0.497        21.006      14.140
   38     2932.592 ||    0.030178           0.696        29.419      19.802
   39     2956.544 ||    0.025152           0.580        24.519      16.504
   40     2961.801 ||    0.015435           0.356        15.047      10.128
   41     2970.148 ||    0.007549           0.174         7.360       4.954
   42     2987.714 ||    0.053323           1.230        51.982      34.989
   43     3037.157 ||    0.027052           0.624        26.372      17.751
   44     3051.996 ||    0.020658           0.477        20.139      13.555
   45     3679.452 ||    0.015621           0.360        15.228      10.250
 ----------------------------------------------------------------------------



 vib:animation  F

 Task  times  cpu:      156.2s     wall:      156.8s


                                NWChem Input Module
                                -------------------


 Summary of allocated global arrays
-----------------------------------
  No active global arrays



                         GA Statistics for process    0
                         ------------------------------

       create   destroy   get      put      acc     scatter   gather  read&inc
calls: 8681     8681     3.34e+06 1.35e+05 2.59e+06 1172        0     1.62e+04 
number of processes/call 1.05e+00 1.94e+00 1.17e+00 2.46e+00 0.00e+00
bytes total:             3.88e+09 1.90e+08 2.28e+09 1.90e+07 0.00e+00 1.29e+05
bytes remote:            2.76e+09 6.78e+07 1.74e+09 -1.76e+07 0.00e+00 0.00e+00
Max memory consumed for GA by this process: 12933976 bytes

MA_summarize_allocated_blocks: starting scan ...
MA_summarize_allocated_blocks: scan completed: 0 heap blocks, 0 stack blocks
MA usage statistics:

	allocation statistics:
					      heap	     stack
					      ----	     -----
	current number of blocks	         0	         0
	maximum number of blocks	        25	        49
	current total bytes		         0	         0
	maximum total bytes		 132093848	  83458992
	maximum total K-bytes		    132094	     83459
	maximum total M-bytes		       133	        84


                                     CITATION
                                     --------
                Please cite the following reference when publishing
                           results obtained with NWChem:

                 M. Valiev, E.J. Bylaska, N. Govind, K. Kowalski,
              T.P. Straatsma, H.J.J. van Dam, D. Wang, J. Nieplocha,
                        E. Apra, T.L. Windus, W.A. de Jong
                 "NWChem: a comprehensive and scalable open-source
                  solution for large scale molecular simulations"
                      Comput. Phys. Commun. 181, 1477 (2010)
                           doi:10.1016/j.cpc.2010.04.018

                              AUTHORS & CONTRIBUTORS
                              ----------------------
          E. Apra, E. J. Bylaska, W. A. de Jong, N. Govind, K. Kowalski,
       T. P. Straatsma, M. Valiev, H. J. J. van Dam, D. Wang, T. L. Windus,
        J. Hammond, J. Autschbach, K. Bhaskaran-Nair, J. Brabec, K. Lopata,
     F. Aquino, S. Hirata, M. T. Hackler, J. Mullin, P. Nichols, R. Peverati,
    J. Pittner, Y. Zhao, P.-D. Fan, R. J. Harrison, M. Dupuis, D. Silverstein,
    D. M. A. Smith, J. Nieplocha, V. Tipparaju, M. Krishnan, B. E. Van Kuiken,
        A. Vazquez-Mayagoitia, L. Jensen, M. Swart, Q. Wu, T. Van Voorhis,
     A. A. Auer, M. Nooijen, L. D. Crosby, E. Brown, G. Cisneros, G. I. Fann,
     H. Fruchtl, J. Garza, K. Hirao, R. Kendall, J. A. Nichols, K. Tsemekhman,
      K. Wolinski, J. Anchell, D. Bernholdt, P. Borowski, T. Clark, D. Clerc,
      H. Dachsel, M. Deegan, K. Dyall, D. Elwood, E. Glendening, M. Gutowski,
      A. Hess, J. Jaffe, B. Johnson, J. Ju, R. Kobayashi, R. Kutteh, Z. Lin,
   R. Littlefield, X. Long, B. Meng, T. Nakajima, S. Niu, L. Pollack, M. Rosing,
   K. Glaesemann, G. Sandrone, M. Stave, H. Taylor, G. Thomas, J. H. van Lenthe,
                                A. Wong, Z. Zhang.

 Total times  cpu:      246.3s     wall:      252.1s
